/*--------------------------------*- C++ -*----------------------------------*\
| =========                 |                                                 |
| \\      /  F ield         | OpenFOAM: The Open Source CFD Toolbox           |
|  \\    /   O peration     | Version:  v2106                                 |
|   \\  /    A nd           | Website:  www.openfoam.com                      |
|    \\/     M anipulation  |                                                 |
\*---------------------------------------------------------------------------*/
FoamFile
{
    version     2.0;
    format      ascii;
    arch        "LSB;label=32;scalar=64";
    class       volScalarField;
    location    "0";
    object      yPlus;
}
// * * * * * * * * * * * * * * * * * * * * * * * * * * * * * * * * * * * * * //

dimensions      [0 0 0 0 0 0 0];

internalField   uniform 0;

boundaryField
{
    PRESSURE-INLET
    {
        type            calculated;
        value           uniform 0;
    }
    PRESSURE-OUTLET
    {
        type            calculated;
        value           uniform 0;
    }
    PROF
    {
        type            calculated;
        value           nonuniform List<scalar> 
722
(
0.8052813887892686
0.8001735342209276
0.7932906609834866
0.7911924565809629
0.7880891302721825
0.782474723556249
0.778375686981488
0.7737803726907946
0.7685648321233078
0.7646555658488545
0.7604147719840791
0.7555897445203367
0.7526537739938213
0.749004561107448
0.7447417288791944
0.7404857510439889
0.7386423220532363
0.7350489677820098
0.7313829863073344
0.7281148249869021
0.7262371238562001
0.7231055896489527
0.7199914403157925
0.71757384297474
0.715533720519805
0.7128738822669697
0.7102369686585909
0.7086266220280364
0.7066968603864705
0.7045113347082803
0.7023518695988564
0.7008921849866048
0.6990025327764696
0.6971266608522995
0.6952783781453947
0.6934581594225526
0.6916666866765715
0.6899037235704375
0.6881699499843825
0.6864667033730631
0.6865650974687267
0.686720051488837
0.6861269450645634
0.6855670241875956
0.6850402781333587
0.6845472695983932
0.684091025922932
0.6836660039418182
0.6832690855099832
0.6831983956484324
0.6841959030808804
0.6845331339876488
0.6849098202230172
0.6853137222829254
0.6857554457868746
0.6862348878688385
0.6867413711364968
0.6872840478769353
0.6878592625108501
0.6884662560475168
0.6891056228901473
0.6897822354005227
0.690489620623049
0.6912241914629529
0.6920006022297066
0.692808179386265
0.6936419222875063
0.6945073267585318
0.6954466692823508
0.6964623212121412
0.6974863899323303
0.6985462375341774
0.699641783262093
0.7007679680627866
0.7019198052285581
0.7031061913043629
0.7043269392224665
0.7055680312603984
0.7068397444399548
0.7081494677376028
0.7094880674014244
0.7108621423390545
0.712259320915147
0.7136835491201514
0.7151413446094536
0.7166305934340754
0.7181463050454813
0.7194775842043333
0.7206332556526073
0.7217830084216739
0.7229628801058348
0.7241701743048403
0.7254114294043736
0.7266797955902273
0.7279818078404661
0.7293152142451568
0.730668630579458
0.7320506152972541
0.7334655713999439
0.7349112780940978
0.7363875525759647
0.7378916823449049
0.7394214963167189
0.7409768163315165
0.7425575020785574
0.7441744063945144
0.745788137034456
0.7471597428005357
0.7484997193085307
0.7498721600955572
0.7512703576168304
0.7526986092697636
0.754158771956273
0.7556398783829061
0.7571548891020677
0.7586904954935123
0.7602530625017552
0.7618446242827713
0.7634563873348976
0.7651096214585863
0.7667869644456574
0.7684883389397887
0.7702071607831605
0.7719497391625265
0.7737331336968434
0.775769871774705
0.7771814509460914
0.7786216302082729
0.7800822278210786
0.7815735978545859
0.7830933917662893
0.784629048539811
0.7861928899310417
0.7877909455155475
0.789408574691518
0.7910559946581559
0.792732991141768
0.7944332033007985
0.7961605533205024
0.7979067137219639
0.7996715956753784
0.8014693005459937
0.8032976315762219
0.805311412510971
0.8075277810020539
0.8088746294330409
0.81024935890664
0.8116562973341945
0.8130869287411524
0.8145389129011696
0.8160143395903139
0.8175252793256792
0.8190615549933751
0.8206109502853686
0.8221871117298669
0.8237898865326857
0.8254174789082823
0.8270796042781761
0.8287601778626434
0.8304531743470392
0.8321818294561742
0.8339318198168802
0.8362211269088388
0.8382122519034424
0.8394654681901541
0.8407540347355397
0.8420814457953312
0.8434259605878177
0.8447898549715576
0.846182577613291
0.8476076412279357
0.8491915790667613
0.8512507135863775
0.8523326210435794
0.8534388965005005
0.8545650571804028
0.8557239856508867
0.856912007026095
0.8581161151437519
0.8593502454756315
0.860610554530215
0.8626301732232036
0.8637646525908528
0.8646812723840505
0.8656146317369436
0.8665655688063968
0.8675457872065614
0.8685552083240919
0.8695878265805164
0.8706446207275349
0.8722270620278253
0.8737638051953889
0.8744002619341344
0.8750630973288722
0.8757555080157946
0.8764747867583578
0.8772117376141744
0.8779806935684134
0.8787756935122036
0.8796985302214673
0.881745374249632
0.8820678862056343
0.8824157958894914
0.8827962044576658
0.8832003805307672
0.8836342024086213
0.8840917209033806
0.884563898396601
0.8850642539862509
0.8864657264155591
0.8870901002440227
0.8871856755066371
0.887302004639417
0.8874480331274277
0.8876147894129875
0.8878112178928058
0.8880372745253708
0.8882844692510997
0.8889623811061118
0.889967415391458
0.8898355093037155
0.8897332110954382
0.8896605252810122
0.8896145448514696
0.8895863047151732
0.8895876764816708
0.8896157772791021
0.8896670690158838
0.8913406407769906
0.8910196743732778
0.8905370772256955
0.8900866131021408
0.889665532746295
0.889265084806085
0.8888940874773749
0.8885437956177219
0.8882157329212704
0.8890658152680275
0.889372858797696
0.8884082557792995
0.8874661704863185
0.8865474646809905
0.885651436004156
0.8847895540750669
0.8839451858721834
0.883129797659719
0.8825285751032402
0.8830185991653976
0.8817766682458426
0.8805577119888557
0.8793669698217759
0.8782009391461797
0.877051970906313
0.8759315142894858
0.8748360465082581
0.8737641149888294
0.873612968570278
0.8726891484478685
0.8712960935075363
0.8699234927316378
0.868578929768397
0.8672600847705595
0.8659569090779317
0.8646909960485747
0.8634511357256788
0.8622247241890907
0.8610270572344155
0.8598582868363256
0.8587095874434459
0.857587430342261
0.8564970210383446
0.855426985129202
0.8543773772969547
0.8533572586858638
0.852567219440053
0.8526751408150531
0.8516467892216808
0.8505171513003051
0.8493617273567184
0.8482986523875954
0.8468374519237981
0.8455990254626081
0.8446311754536726
0.8430609022657621
0.8417084006165874
0.8403591049819596
0.8390482087697703
0.8376897580320384
0.836379025285081
0.8349985536915658
0.8331350877195105
0.8315647803540166
0.8300630140542693
0.8285884784815587
0.8265424012307596
0.825013905476997
0.8232610594213969
0.8213498253173033
0.8191526442490319
0.8169997626376803
0.8148936652545927
0.8004537638138974
0.7935187564370769
0.8016523612113592
0.8083827801765427
0.8137276983767875
0.8177009683003549
0.820312588882369
0.8215685412128343
0.8214720229483212
0.8200228307449363
0.8172609409781234
0.8168775700633661
0.8163992144487382
0.8145595345101065
0.8129112728784649
0.8121144432434675
0.8118271568317935
0.8101710040696772
0.8071417963919757
0.8090633655036183
0.8085008384391763
0.8085580667361273
0.8072410589913125
0.8079460362532497
0.8076492142872376
0.8089012688743605
0.8087799662864376
0.8072847103021512
0.8099904195540414
0.8088113315714675
0.8119796752398327
0.8137786811073309
0.8142120628212564
0.8132807690213606
0.810981986380731
0.8160880137613493
0.8188696009040418
0.8220719653717736
0.8239211334162582
0.8244213995471344
0.8235738977582674
0.8270897957850905
0.8304622040832658
0.8330365651226269
0.8342702160462725
0.8360452335383362
0.8396311521920424
0.8418973294367689
0.8428432243610805
0.8424707450384434
0.8407791406258182
0.8377625478325473
0.8472927855687308
0.8458307419128187
0.8430568847450978
0.8389625272656057
0.8335386016803568
0.8267729730575217
0.818650023019842
0.8091496118300071
0.8034379020323703
0.8076415250742289
0.8105880428392517
0.8123126291813697
0.8128094839114834
0.812626978966246
0.8126970589110225
0.8115497131796522
0.8091691729094888
0.8097421094203663
0.8117662798269556
0.8122646798834876
0.8115462115993575
0.8096065980669525
0.8097495512811617
0.8114538195492598
0.8118937942222344
0.811108923843982
0.8097132894112343
0.8077293972133592
0.8103647779124965
0.8117715937901421
0.8119732600619469
0.8109575352789242
0.8087036189716402
0.8118567747281037
0.809838671093093
0.8116223677199306
0.8121826676779894
0.8115249304528209
0.8096476149635847
0.8112291078388342
0.8111205635718061
0.8121821640039247
0.8120274008072988
0.8117963555566292
0.8106365473210546
0.8123180454736803
0.812784268738029
0.8120400572727174
0.8127924954837841
0.8114793411422682
0.8129542475166951
0.8132046756728777
0.8113578499002218
0.8119610507944012
0.8134980601512761
0.8138101415693688
0.8138959067782366
0.8115594617409465
0.8135698668263421
0.8143540194565503
0.8139199992801661
0.8122742255436542
0.8117442785166936
0.8134672705718924
0.8115204466444689
0.8083491750155503
0.8039325947061461
0.7987223210704218
0.7878752568233287
0.7767638648440512
0.7653489254179178
0.7536362698089235
0.7656182570092184
0.7696955204397685
0.7623275116769711
0.7590625759110714
0.7635598842225815
0.7581435799082944
0.7525837402788076
0.7552026721239729
0.7515180471222713
0.7470659836911459
0.7473637913469318
0.7451995345480295
0.741528989236925
0.7377323346925616
0.7377211575087158
0.7357549969466894
0.7325709217225397
0.7292637776976207
0.7289063956106914
0.7269138818750265
0.7240308822312375
0.7210253443943236
0.7207073334138365
0.7185440053302815
0.7158522540984084
0.7130428649959333
0.7135562502720358
0.7114321702436724
0.7090257414980617
0.7072003296347279
0.708706380228194
0.7069916563730063
0.7051576899349625
0.7032057956541501
0.7011356305573297
0.6989449574237557
0.6966339212740134
0.6942002257528128
0.6916430259710574
0.6915632585266449
0.6913144812393436
0.6894784440257
0.6875177915843996
0.685439481615035
0.6854745865828413
0.6842803064758917
0.6825371503026954
0.6806650826706899
0.6791534140996007
0.6804620396011258
0.6792387789137707
0.6778906119795826
0.6764276383960152
0.6748424148986534
0.6731327886683508
0.6713058552980293
0.6693489828852814
0.6672678561056857
0.6685239930028258
0.6683739627213051
0.6672460151546983
0.6659902191422514
0.6646079168817636
0.6631170356593598
0.6615055332572857
0.6597638041214212
0.6578906051057591
0.6579960379814569
0.6585647552594814
0.6576391616413512
0.6565938022791069
0.6554258451758153
0.6541212665277816
0.652692619687184
0.6511518758429903
0.6494787425633539
0.6490950848184232
0.6501728370796513
0.6495213323329975
0.648740055868735
0.6478414093947807
0.6468179756816245
0.6456642904723602
0.644384514567156
0.6429908226459403
0.6422663070446906
0.643815349596801
0.6435391026134448
0.6431214545180169
0.6425917980769669
0.6419441832633278
0.6411523993357156
0.6402345660399379
0.6392045907012114
0.6385587494470586
0.6403099255096113
0.6404609566828428
0.6404748893747418
0.6403636769231686
0.6401272497624928
0.639760011200876
0.639274599852545
0.6386743134385444
0.6382368825736804
0.6402180439123155
0.6408999274437467
0.6414463372747641
0.6418754270231423
0.6421794860801384
0.6423535343020167
0.6424155824936597
0.6423377615779087
0.6424411846089123
0.6447892441950746
0.6463583190546176
0.6477867746781442
0.6490804392378543
0.6502611242591854
0.6513121870684049
0.6522361246510636
0.6530458531323179
0.6537441842810723
0.6566409927543301
0.6593039763251085
0.6618618673639681
0.664294480490753
0.6665997381754053
0.668782419487742
0.6708360187438579
0.6727694316083206
0.6745802499570881
0.6775650833771897
0.6809596551702709
0.6844475979881139
0.6878106741368842
0.6910392261758251
0.6941278248613789
0.6970969684972013
0.6999405579917347
0.7026579471483637
0.7056218337619283
0.709489422188084
0.7135485226819149
0.7174822663603294
0.7212860679758075
0.7249536310570613
0.7284943737739572
0.7319069665202832
0.7352051662721492
0.7381671156861269
0.742013582233084
0.7461555748914681
0.750174191863773
0.7540640412521162
0.7578300819372161
0.7614768747173704
0.7650033954282962
0.7684107043580021
0.7713423079664701
0.7748871482115348
0.7787498685540144
0.7824957255548357
0.7861122676189475
0.7896128224254054
0.7930101603643821
0.796287376377205
0.7994415904751072
0.8020582430088297
0.8050635069439329
0.8086898284300291
0.8122032204857575
0.8155985831397961
0.8188865258940276
0.8220615208122247
0.8251361364509034
0.82809557814851
0.8304867555258049
0.8328857249536042
0.8363420626360876
0.8397030782426197
0.8429601300512894
0.8461036269158043
0.8491456259923353
0.852080597774353
0.8549030941223743
0.8574352429161549
0.8591826669459733
0.8623765521131859
0.8654583318415021
0.8684369044686923
0.8713178857139388
0.8741022413663068
0.8767927934296252
0.8793820639477368
0.8818721188201991
0.8832748165849172
0.8859361945666296
0.888635434246278
0.89123483287724
0.8937352424681804
0.8961456231145084
0.8984585656495166
0.9006720779009872
0.90279945773254
0.9041196072260356
0.9058794587811333
0.9082031223960663
0.9104375302021573
0.9125833069184471
0.9146318861674668
0.9165885240251982
0.9184567521234676
0.9202371937538626
0.9214917764758548
0.9220657923052585
0.9241616167005503
0.9261680059776045
0.9280761794232362
0.9298959013218379
0.9316323273368581
0.9332736460678144
0.93482651531741
0.9363050628905807
0.9376883573543858
0.9389783073649907
0.9401904286954061
0.9413145174404042
0.9423538197071295
0.9433086344390471
0.9441762723572247
0.9449584341784807
0.9456507374417987
0.9459625489397512
0.9463261626051335
0.9469512216165858
0.9474853929464205
0.9479363126742064
0.9483041038939274
0.9485813793669757
0.9487757013687633
0.9488945805112281
0.9489245454631102
0.9488687858731374
0.9487376036238708
0.9485188996364522
0.9482143545587095
0.9478281756141441
0.9473542167648024
0.9467955430688626
0.9461594890039619
0.9454316342562372
0.9445255809553766
0.9436305259542419
0.9426931863140212
0.941660663632361
0.9405358691630757
0.9393335424854549
0.9380458802117335
0.9366663548442101
0.935203599589893
0.933648203967918
0.9320072628587055
0.9302789456192704
0.9284626802956205
0.9265609385263753
0.9245578196799957
0.9224727691747741
0.9203005241074743
0.9180297644704817
0.9156332564100795
0.9131062510806887
0.9105873818173376
0.9079797716390036
0.9052792914955896
0.9024850881910869
0.8995899462836918
0.8965992144156073
0.8935056242829232
0.8901438553219291
0.8867611152371141
0.8837637714344021
0.8802659009236024
0.8764170918984638
0.8727890501839993
0.8692431493051762
0.8649796930032893
0.8613859037892122
0.8571059485858504
0.8527498821525804
0.8484859591320344
0.8441074299285009
0.8396868856934472
0.8351214783995579
0.8304684442866852
0.8257278775156731
0.8209093998912935
0.8138328064835619
)
;
    }
    frontAndBackPlanes
    {
        type            empty;
    }
    PERIOD1
    {
        type            cyclic;
    }
    PERIOD2
    {
        type            cyclic;
    }
}


// ************************************************************************* //
